 
             +---------------------------------------------------+
             |                                                   |
             |                   WANNIER90                       |
             |                                                   |
             +---------------------------------------------------+
             |                                                   |
             |        Welcome to the Maximally-Localized         |
             |        Generalized Wannier Functions code         |
             |            http://www.wannier.org                 |
             |                                                   |
             |                                                   |
             |  Wannier90 Developer Group:                       |
             |    Giovanni Pizzi    (EPFL)                       |
             |    Valerio Vitale    (Cambridge)                  |
             |    David Vanderbilt  (Rutgers University)         |
             |    Nicola Marzari    (EPFL)                       |
             |    Ivo Souza         (Universidad del Pais Vasco) |
             |    Arash A. Mostofi  (Imperial College London)    |
             |    Jonathan R. Yates (University of Oxford)       |
             |                                                   |
             |  For the full list of Wannier90 3.x authors,      |
             |  please check the code documentation and the      |
             |  README on the GitHub page of the code            |
             |                                                   |
             |                                                   |
             |  Please cite                                      |
             |                                                   |
             |  [ref] "Wannier90 as a community code:            |
             |        new features and applications",            |
             |        G. Pizzi et al., J. Phys. Cond. Matt. 32,  |
             |        165902 (2020).                             |
             |        http://doi.org/10.1088/1361-648X/ab51ff    |
             |                                                   |
             |  in any publications arising from the use of      |
             |  this code. For the method please cite            |
             |                                                   |
             |  [ref] "Maximally Localized Generalised Wannier   |
             |         Functions for Composite Energy Bands"     |
             |         N. Marzari and D. Vanderbilt              |
             |         Phys. Rev. B 56 12847 (1997)              |
             |                                                   |
             |  [ref] "Maximally Localized Wannier Functions     |
             |         for Entangled Energy Bands"               |
             |         I. Souza, N. Marzari and D. Vanderbilt    |
             |         Phys. Rev. B 65 035109 (2001)             |
             |                                                   |
             |                                                   |
             | Copyright (c) 1996-2020                           |
             |        The Wannier90 Developer Group and          |
             |        individual contributors                    |
             |                                                   |
             |      Release: 3.1.0        5th March    2020      |
             |                                                   |
             | This program is free software; you can            |
             | redistribute it and/or modify it under the terms  |
             | of the GNU General Public License as published by |
             | the Free Software Foundation; either version 2 of |
             | the License, or (at your option) any later version|
             |                                                   |
             | This program is distributed in the hope that it   |
             | will be useful, but WITHOUT ANY WARRANTY; without |
             | even the implied warranty of MERCHANTABILITY or   |
             | FITNESS FOR A PARTICULAR PURPOSE. See the GNU     |
             | General Public License for more details.          |
             |                                                   |
             | You should have received a copy of the GNU General|
             | Public License along with this program; if not,   |
             | write to the Free Software Foundation, Inc.,      |
             | 675 Mass Ave, Cambridge, MA 02139, USA.           |
             |                                                   |
             +---------------------------------------------------+
             |    Execution started on 20Feb2023 at 14:45:32     |
             +---------------------------------------------------+
 
 ******************************************************************************
 * -> Using CODATA 2006 constant values                                       *
 *    (http://physics.nist.gov/cuu/Constants/index.html)                      *
 * -> Using Bohr value from CODATA                                            *
 ******************************************************************************
 

 Running in serial (with serial executable)
 
                                    ------
                                    SYSTEM
                                    ------
 
                              Lattice Vectors (Ang)
                    a_1     3.826383   0.000000   0.000000
                    a_2     0.000000   3.826383   0.000000
                    a_3     0.000000   0.000000   3.204586
 
                   Unit Cell Volume:      46.91901  (Ang^3)
 
                        Reciprocal-Space Vectors (Ang^-1)
                    b_1     1.642069   0.000000   0.000000
                    b_2     0.000000   1.642069   0.000000
                    b_3     0.000000   0.000000   1.960686
  
 *----------------------------------------------------------------------------*
 |   Site       Fractional Coordinate          Cartesian Coordinate (Ang)     |
 +----------------------------------------------------------------------------+
 | Pr   1   0.00000   0.00000   0.00000   |    0.00000   0.00000   0.00000    |
 | Sr   1   0.00000   0.00000   0.00000   |    0.00000   0.00000   0.00000    |
 | Ni   1   0.50000   0.50000   0.50000   |    1.91319   1.91319   1.60229    |
 | O    1   0.00000   0.50000   0.50000   |    0.00000   1.91319   1.60229    |
 | O    2   0.50000   0.00000   0.50000   |    1.91319   0.00000   1.60229    |
 *----------------------------------------------------------------------------*
                                ------------
                                K-POINT GRID
                                ------------
  
             Grid size =  8 x  8 x 12      Total points =  768
  
  
 *---------------------------------- MAIN ------------------------------------*
 |  Number of Wannier Functions               :                 1             |
 |  Number of Objective Wannier Functions     :                 1             |
 |  Number of input Bloch states              :                96             |
 |  Output verbosity (1=low, 5=high)          :                 1             |
 |  Timing Level (1=low, 5=high)              :                 1             |
 |  Optimisation (0=memory, 3=speed)          :                 3             |
 |  Length Unit                               :               Ang             |
 |  Post-processing setup (write *.nnkp)      :                 F             |
 |  Using Gamma-only branch of algorithms     :                 F             |
 *----------------------------------------------------------------------------*
 *------------------------------- WANNIERISE ---------------------------------*
 |  Total number of iterations                :              1000             |
 |  Number of CG steps before reset           :                 5             |
 |  Trial step length for line search         :             2.000             |
 |  Convergence tolerence                     :         0.100E-09             |
 |  Convergence window                        :                10             |
 |  Iterations between writing output         :               100             |
 |  Iterations between backing up to disk     :               100             |
 |  Write r^2_nm to file                      :                 F             |
 |  Write xyz WF centres to file              :                 T             |
 |  Write on-site energies <0n|H|0n> to file  :                 F             |
 |  Use guiding centre to control phases      :                 T             |
 |  Use phases for initial projections        :                 F             |
 |  Iterations before starting guiding centres:                 0             |
 |  Iterations between using guiding centres  :                 1             |
 *----------------------------------------------------------------------------*
 *------------------------------- DISENTANGLE --------------------------------*
 |  Using band disentanglement                :                 T             |
 |  Total number of iterations                :              4000             |
 |  Mixing ratio                              :             0.200             |
 |  Convergence tolerence                     :         1.000E-10             |
 |  Convergence window                        :                 3             |
 *----------------------------------------------------------------------------*
 *-------------------------------- PLOTTING ----------------------------------*
 |  Plotting Fermi surface                    :                 T             |
 |   Number of plotting points (along b_1)    :                60             |
 |   Plotting format                          :          xcrysden             |
 *----------------------------------------------------------------------------*
 |  Plotting interpolated bandstructure       :                 T             |
 |   Number of K-path sections                :                 7             |
 |   Divisions along first K-path section     :                40             |
 |   Output format                            :           gnuplot             |
 |   Output mode                              :               s-k             |
 *----------------------------------------------------------------------------*
 |   K-space path sections:                                                   |
 |    From: G       0.000  0.000  0.000     To: X       0.000  0.500  0.000   |
 |    From: X       0.000  0.500  0.000     To: M       0.500  0.500  0.000   |
 |    From: M       0.500  0.500  0.000     To: G       0.000  0.000  0.000   |
 |    From: G       0.000  0.000  0.000     To: Z       0.000  0.000  0.500   |
 |    From: Z       0.000  0.000  0.500     To: R       0.000  0.500  0.500   |
 |    From: R       0.000  0.500  0.500     To: A       0.500  0.500  0.500   |
 |    From: A       0.500  0.500  0.500     To: Z       0.000  0.000  0.500   |
 *----------------------------------------------------------------------------*
 |  Plotting Hamiltonian in WF basis          :                 T             |
 *----------------------------------------------------------------------------*
 Time to read parameters        0.101 (sec)

 *---------------------------------- K-MESH ----------------------------------*
 +----------------------------------------------------------------------------+
 |                    Distance to Nearest-Neighbour Shells                    |
 |                    ------------------------------------                    |
 |          Shell             Distance (Ang^-1)          Multiplicity         |
 |          -----             -----------------          ------------         |
 |             1                   0.163390                      2            |
 |             2                   0.205259                      4            |
 |             3                   0.262350                      8            |
 |             4                   0.290280                      4            |
 |             5                   0.326781                      2            |
 |             6                   0.333105                      8            |
 |             7                   0.385898                      8            |
 |             8                   0.410517                      4            |
 |             9                   0.437090                      8            |
 |            10                   0.441838                      8            |
 |            11                   0.458972                      8            |
 |            12                   0.487188                     16            |
 |            13                   0.490171                      2            |
 |            14                   0.524700                      8            |
 |            15                   0.531412                      8            |
 |            16                   0.563419                     16            |
 |            17                   0.569676                      8            |
 |            18                   0.580559                      4            |
 |            19                   0.603113                      8            |
 |            20                   0.615776                      4            |
 |            21                   0.637084                      8            |
 |            22                   0.639369                      8            |
 |            23                   0.649085                      8            |
 |            24                   0.653562                      2            |
 |            25                   0.666209                      8            |
 |            26                   0.669334                     16            |
 |            27                   0.671508                     16            |
 |            28                   0.685036                      8            |
 |            29                   0.697112                      8            |
 |            30                   0.715126                      8            |
 |            31                   0.726703                     16            |
 |            32                   0.740070                      8            |
 |            33                   0.757892                     16            |
 |            34                   0.759814                      8            |
 |            35                   0.771795                      8            |
 |            36                   0.787050                      8            |
 +----------------------------------------------------------------------------+
 | The b-vectors are chosen automatically                                     |
 | The following shells are used:   1,  2                                     |
 +----------------------------------------------------------------------------+
 |                        Shell   # Nearest-Neighbours                        |
 |                        -----   --------------------                        |
 |                          1               2                                 |
 |                          2               4                                 |
 +----------------------------------------------------------------------------+
 | Completeness relation is fully satisfied [Eq. (B1), PRB 56, 12847 (1997)]  |
 +----------------------------------------------------------------------------+
 |                  b_k Vectors (Ang^-1) and Weights (Ang^2)                  |
 |                  ----------------------------------------                  |
 |            No.         b_k(x)      b_k(y)      b_k(z)        w_b           |
 |            ---        --------------------------------     --------        |
 |             1         0.000000    0.000000    0.163390    18.729083        |
 |             2         0.000000    0.000000   -0.163390    18.729083        |
 |             3         0.205259    0.000000    0.000000    11.867718        |
 |             4        -0.205259    0.000000    0.000000    11.867718        |
 |             5         0.000000    0.205259    0.000000    11.867718        |
 |             6         0.000000   -0.205259    0.000000    11.867718        |
 +----------------------------------------------------------------------------+
 |                           b_k Directions (Ang^-1)                          |
 |                           -----------------------                          |
 |            No.           x           y           z                         |
 |            ---        --------------------------------                     |
 |             1         0.000000    0.000000    0.163390                     |
 |             2         0.205259    0.000000    0.000000                     |
 |             3         0.000000    0.205259    0.000000                     |
 +----------------------------------------------------------------------------+
  
 Time to get kmesh              0.383 (sec)
 *============================================================================*
 |                              MEMORY ESTIMATE                               |
 |         Maximum RAM allocated during each phase of the calculation         |
 *============================================================================*
 |                        Disentanglement          868.55 Mb                  |
 |                            Wannierise:            2.34 Mb                  |
 |                          plot_wannier:            2.34 Mb                  |
 *----------------------------------------------------------------------------*
  
 Starting a new Wannier90 calculation ...


 Reading overlaps from wannier90.mmn    : File generated by VASP: ABO

 Reading projections from wannier90.amn : File generated by VASP: ABO

 Time to read overlaps         34.480 (sec)

 *------------------------------- DISENTANGLE --------------------------------*
 +----------------------------------------------------------------------------+
 |                              Energy  Windows                               |
 |                              ---------------                               |
 |                   Outer:    5.77000  to    9.87000  (eV)                   |
 |                   No frozen states were specified                          |
 +----------------------------------------------------------------------------+
   Number of target bands to extract:    1

                   Unitarised projection of Wannier functions                  
                   ------------------------------------------                  
   A_mn = <psi_m|g_n> --> S = A.A^+ --> U = S^-1/2.A
   In dis_project... done
   No inner window (linner = F)

                   Extraction of optimally-connected subspace                  
                   ------------------------------------------                  
 +---------------------------------------------------------------------+<-- DIS
 |  Iter     Omega_I(i-1)      Omega_I(i)      Delta (frac.)    Time   |<-- DIS
 +---------------------------------------------------------------------+<-- DIS
       1       2.31523209       2.27608372       1.720E-02      0.00    <-- DIS
       2       2.30719196       2.27206893       1.546E-02      0.04    <-- DIS
       3       2.29999297       2.26872536       1.378E-02      0.07    <-- DIS
       4       2.29359213       2.26589109       1.223E-02      0.09    <-- DIS
       5       2.28792584       2.26345974       1.081E-02      0.12    <-- DIS
       6       2.28292375       2.26135658       9.537E-03      0.15    <-- DIS
       7       2.27851568       2.25952620       8.404E-03      0.18    <-- DIS
       8       2.27463512       2.25792571       7.400E-03      0.20    <-- DIS
       9       2.27122074       2.25652089       6.514E-03      0.23    <-- DIS
      10       2.26821697       2.25528385       5.735E-03      0.26    <-- DIS
      11       2.26557405       2.25419148       5.050E-03      0.28    <-- DIS
      12       2.26324773       2.25322442       4.448E-03      0.31    <-- DIS
      13       2.26119889       2.25236632       3.921E-03      0.34    <-- DIS
      14       2.25939312       2.25160330       3.460E-03      0.36    <-- DIS
      15       2.25780019       2.25092345       3.055E-03      0.39    <-- DIS
      16       2.25639364       2.25031660       2.701E-03      0.42    <-- DIS
      17       2.25515035       2.24977394       2.390E-03      0.44    <-- DIS
      18       2.25405010       2.24928788       2.117E-03      0.47    <-- DIS
      19       2.25307527       2.24885182       1.878E-03      0.50    <-- DIS
      20       2.25221047       2.24846004       1.668E-03      0.52    <-- DIS
      21       2.25144230       2.24810754       1.483E-03      0.55    <-- DIS
      22       2.25075905       2.24778995       1.321E-03      0.58    <-- DIS
      23       2.25015054       2.24750343       1.178E-03      0.61    <-- DIS
      24       2.24960785       2.24724463       1.052E-03      0.63    <-- DIS
      25       2.24912321       2.24701060       9.402E-04      0.66    <-- DIS
      26       2.24868983       2.24679871       8.417E-04      0.69    <-- DIS
      27       2.24830177       2.24660668       7.545E-04      0.71    <-- DIS
      28       2.24795383       2.24643247       6.772E-04      0.74    <-- DIS
      29       2.24764146       2.24627426       6.087E-04      0.77    <-- DIS
      30       2.24736066       2.24613045       5.477E-04      0.79    <-- DIS
      31       2.24710792       2.24599962       4.935E-04      0.82    <-- DIS
      32       2.24688017       2.24588050       4.451E-04      0.85    <-- DIS
      33       2.24667468       2.24577194       4.020E-04      0.88    <-- DIS
      34       2.24648907       2.24567295       3.634E-04      0.90    <-- DIS
      35       2.24632122       2.24558260       3.289E-04      0.93    <-- DIS
      36       2.24616928       2.24550010       2.980E-04      0.96    <-- DIS
      37       2.24603159       2.24542470       2.703E-04      0.98    <-- DIS
      38       2.24590669       2.24535576       2.454E-04      1.01    <-- DIS
      39       2.24579328       2.24529268       2.230E-04      1.04    <-- DIS
      40       2.24569021       2.24523493       2.028E-04      1.07    <-- DIS
      41       2.24559645       2.24518203       1.846E-04      1.09    <-- DIS
      42       2.24551109       2.24513356       1.682E-04      1.12    <-- DIS
      43       2.24543331       2.24508912       1.533E-04      1.15    <-- DIS
      44       2.24536239       2.24504835       1.399E-04      1.17    <-- DIS
      45       2.24529767       2.24501094       1.277E-04      1.20    <-- DIS
      46       2.24523857       2.24497660       1.167E-04      1.23    <-- DIS
      47       2.24518457       2.24494505       1.067E-04      1.25    <-- DIS
      48       2.24513518       2.24491607       9.760E-05      1.28    <-- DIS
      49       2.24509000       2.24488944       8.934E-05      1.31    <-- DIS
      50       2.24504864       2.24486495       8.182E-05      1.34    <-- DIS
      51       2.24501075       2.24484244       7.498E-05      1.36    <-- DIS
      52       2.24497603       2.24482172       6.874E-05      1.39    <-- DIS
      53       2.24494420       2.24480266       6.305E-05      1.42    <-- DIS
      54       2.24491499       2.24478511       5.786E-05      1.44    <-- DIS
      55       2.24488819       2.24476895       5.312E-05      1.47    <-- DIS
      56       2.24486359       2.24475408       4.878E-05      1.50    <-- DIS
      57       2.24484098       2.24474037       4.482E-05      1.52    <-- DIS
      58       2.24482022       2.24472775       4.119E-05      1.55    <-- DIS
      59       2.24480113       2.24471611       3.787E-05      1.58    <-- DIS
      60       2.24478358       2.24470539       3.483E-05      1.61    <-- DIS
      61       2.24476744       2.24469551       3.205E-05      1.63    <-- DIS
      62       2.24475259       2.24468639       2.949E-05      1.66    <-- DIS
      63       2.24473892       2.24467799       2.715E-05      1.69    <-- DIS
      64       2.24472634       2.24467023       2.499E-05      1.71    <-- DIS
      65       2.24471475       2.24466308       2.302E-05      1.74    <-- DIS
      66       2.24470408       2.24465648       2.120E-05      1.77    <-- DIS
      67       2.24469425       2.24465040       1.954E-05      1.79    <-- DIS
      68       2.24468519       2.24464478       1.801E-05      1.82    <-- DIS
      69       2.24467685       2.24463959       1.660E-05      1.85    <-- DIS
      70       2.24466915       2.24463480       1.530E-05      1.88    <-- DIS
      71       2.24466206       2.24463038       1.411E-05      1.90    <-- DIS
      72       2.24465551       2.24462630       1.301E-05      1.93    <-- DIS
      73       2.24464948       2.24462254       1.200E-05      1.96    <-- DIS
      74       2.24464391       2.24461906       1.107E-05      1.98    <-- DIS
      75       2.24463878       2.24461584       1.022E-05      2.01    <-- DIS
      76       2.24463404       2.24461288       9.429E-06      2.04    <-- DIS
      77       2.24462967       2.24461013       8.702E-06      2.06    <-- DIS
      78       2.24462563       2.24460760       8.033E-06      2.09    <-- DIS
      79       2.24462191       2.24460526       7.416E-06      2.12    <-- DIS
      80       2.24461847       2.24460310       6.847E-06      2.15    <-- DIS
      81       2.24461529       2.24460110       6.322E-06      2.17    <-- DIS
      82       2.24461236       2.24459925       5.838E-06      2.20    <-- DIS
      83       2.24460965       2.24459755       5.392E-06      2.23    <-- DIS
      84       2.24460715       2.24459597       4.980E-06      2.25    <-- DIS
      85       2.24460484       2.24459451       4.600E-06      2.28    <-- DIS
      86       2.24460271       2.24459317       4.250E-06      2.31    <-- DIS
      87       2.24460073       2.24459192       3.926E-06      2.34    <-- DIS
      88       2.24459891       2.24459077       3.628E-06      2.36    <-- DIS
      89       2.24459723       2.24458971       3.352E-06      2.39    <-- DIS
      90       2.24459568       2.24458872       3.098E-06      2.42    <-- DIS
      91       2.24459424       2.24458781       2.863E-06      2.44    <-- DIS
      92       2.24459291       2.24458697       2.646E-06      2.47    <-- DIS
      93       2.24459168       2.24458619       2.446E-06      2.50    <-- DIS
      94       2.24459055       2.24458547       2.260E-06      2.52    <-- DIS
      95       2.24458950       2.24458481       2.090E-06      2.55    <-- DIS
      96       2.24458853       2.24458419       1.932E-06      2.58    <-- DIS
      97       2.24458763       2.24458363       1.786E-06      2.61    <-- DIS
      98       2.24458681       2.24458310       1.651E-06      2.63    <-- DIS
      99       2.24458604       2.24458261       1.527E-06      2.66    <-- DIS
     100       2.24458533       2.24458216       1.411E-06      2.69    <-- DIS
     101       2.24458468       2.24458175       1.305E-06      2.71    <-- DIS
     102       2.24458407       2.24458136       1.207E-06      2.74    <-- DIS
     103       2.24458351       2.24458101       1.116E-06      2.77    <-- DIS
     104       2.24458299       2.24458068       1.032E-06      2.80    <-- DIS
     105       2.24458251       2.24458037       9.546E-07      2.82    <-- DIS
     106       2.24458207       2.24458009       8.829E-07      2.85    <-- DIS
     107       2.24458166       2.24457983       8.166E-07      2.88    <-- DIS
     108       2.24458128       2.24457959       7.553E-07      2.90    <-- DIS
     109       2.24458093       2.24457936       6.986E-07      2.93    <-- DIS
     110       2.24458061       2.24457916       6.462E-07      2.96    <-- DIS
     111       2.24458031       2.24457897       5.978E-07      2.98    <-- DIS
     112       2.24458003       2.24457879       5.530E-07      3.01    <-- DIS
     113       2.24457977       2.24457863       5.116E-07      3.04    <-- DIS
     114       2.24457954       2.24457848       4.733E-07      3.07    <-- DIS
     115       2.24457932       2.24457834       4.378E-07      3.09    <-- DIS
     116       2.24457911       2.24457821       4.051E-07      3.12    <-- DIS
     117       2.24457893       2.24457809       3.748E-07      3.15    <-- DIS
     118       2.24457875       2.24457797       3.468E-07      3.17    <-- DIS
     119       2.24457859       2.24457787       3.208E-07      3.20    <-- DIS
     120       2.24457844       2.24457778       2.969E-07      3.23    <-- DIS
     121       2.24457831       2.24457769       2.747E-07      3.26    <-- DIS
     122       2.24457818       2.24457761       2.542E-07      3.28    <-- DIS
     123       2.24457806       2.24457753       2.352E-07      3.31    <-- DIS
     124       2.24457795       2.24457746       2.177E-07      3.34    <-- DIS
     125       2.24457785       2.24457740       2.014E-07      3.36    <-- DIS
     126       2.24457776       2.24457734       1.864E-07      3.39    <-- DIS
     127       2.24457767       2.24457728       1.725E-07      3.42    <-- DIS
     128       2.24457759       2.24457723       1.596E-07      3.45    <-- DIS
     129       2.24457752       2.24457718       1.477E-07      3.47    <-- DIS
     130       2.24457745       2.24457714       1.367E-07      3.50    <-- DIS
     131       2.24457738       2.24457710       1.266E-07      3.53    <-- DIS
     132       2.24457733       2.24457706       1.171E-07      3.55    <-- DIS
     133       2.24457727       2.24457703       1.084E-07      3.58    <-- DIS
     134       2.24457722       2.24457700       1.003E-07      3.61    <-- DIS
     135       2.24457717       2.24457697       9.287E-08      3.63    <-- DIS
     136       2.24457713       2.24457694       8.597E-08      3.66    <-- DIS
     137       2.24457709       2.24457691       7.957E-08      3.69    <-- DIS
     138       2.24457705       2.24457689       7.365E-08      3.72    <-- DIS
     139       2.24457702       2.24457687       6.818E-08      3.74    <-- DIS
     140       2.24457699       2.24457685       6.311E-08      3.77    <-- DIS
     141       2.24457696       2.24457683       5.842E-08      3.80    <-- DIS
     142       2.24457693       2.24457681       5.408E-08      3.82    <-- DIS
     143       2.24457691       2.24457679       5.006E-08      3.85    <-- DIS
     144       2.24457688       2.24457678       4.635E-08      3.88    <-- DIS
     145       2.24457686       2.24457677       4.291E-08      3.91    <-- DIS
     146       2.24457684       2.24457675       3.972E-08      3.93    <-- DIS
     147       2.24457682       2.24457674       3.677E-08      3.96    <-- DIS
     148       2.24457681       2.24457673       3.404E-08      3.99    <-- DIS
     149       2.24457679       2.24457672       3.152E-08      4.01    <-- DIS
     150       2.24457678       2.24457671       2.918E-08      4.04    <-- DIS
     151       2.24457676       2.24457670       2.702E-08      4.07    <-- DIS
     152       2.24457675       2.24457669       2.501E-08      4.10    <-- DIS
     153       2.24457674       2.24457669       2.316E-08      4.12    <-- DIS
     154       2.24457673       2.24457668       2.144E-08      4.15    <-- DIS
     155       2.24457672       2.24457667       1.985E-08      4.18    <-- DIS
     156       2.24457671       2.24457667       1.838E-08      4.20    <-- DIS
     157       2.24457670       2.24457666       1.702E-08      4.23    <-- DIS
     158       2.24457669       2.24457666       1.576E-08      4.26    <-- DIS
     159       2.24457668       2.24457665       1.459E-08      4.28    <-- DIS
     160       2.24457668       2.24457665       1.351E-08      4.31    <-- DIS
     161       2.24457667       2.24457664       1.251E-08      4.34    <-- DIS
     162       2.24457667       2.24457664       1.159E-08      4.37    <-- DIS
     163       2.24457666       2.24457664       1.073E-08      4.39    <-- DIS
     164       2.24457666       2.24457663       9.934E-09      4.42    <-- DIS
     165       2.24457665       2.24457663       9.199E-09      4.45    <-- DIS
     166       2.24457665       2.24457663       8.518E-09      4.47    <-- DIS
     167       2.24457664       2.24457663       7.888E-09      4.50    <-- DIS
     168       2.24457664       2.24457662       7.305E-09      4.53    <-- DIS
     169       2.24457664       2.24457662       6.765E-09      4.56    <-- DIS
     170       2.24457663       2.24457662       6.264E-09      4.58    <-- DIS
     171       2.24457663       2.24457662       5.801E-09      4.61    <-- DIS
     172       2.24457663       2.24457661       5.372E-09      4.64    <-- DIS
     173       2.24457662       2.24457661       4.975E-09      4.66    <-- DIS
     174       2.24457662       2.24457661       4.608E-09      4.69    <-- DIS
     175       2.24457662       2.24457661       4.267E-09      4.72    <-- DIS
     176       2.24457662       2.24457661       3.952E-09      4.75    <-- DIS
     177       2.24457662       2.24457661       3.660E-09      4.77    <-- DIS
     178       2.24457661       2.24457661       3.390E-09      4.80    <-- DIS
     179       2.24457661       2.24457661       3.139E-09      4.83    <-- DIS
     180       2.24457661       2.24457660       2.908E-09      4.85    <-- DIS
     181       2.24457661       2.24457660       2.693E-09      4.88    <-- DIS
     182       2.24457661       2.24457660       2.494E-09      4.91    <-- DIS
     183       2.24457661       2.24457660       2.310E-09      4.93    <-- DIS
     184       2.24457661       2.24457660       2.140E-09      4.96    <-- DIS
     185       2.24457661       2.24457660       1.982E-09      4.99    <-- DIS
     186       2.24457660       2.24457660       1.835E-09      5.02    <-- DIS
     187       2.24457660       2.24457660       1.700E-09      5.04    <-- DIS
     188       2.24457660       2.24457660       1.575E-09      5.07    <-- DIS
     189       2.24457660       2.24457660       1.458E-09      5.10    <-- DIS
     190       2.24457660       2.24457660       1.351E-09      5.12    <-- DIS
     191       2.24457660       2.24457660       1.251E-09      5.15    <-- DIS
     192       2.24457660       2.24457660       1.159E-09      5.18    <-- DIS
     193       2.24457660       2.24457660       1.074E-09      5.21    <-- DIS
     194       2.24457660       2.24457660       9.944E-10      5.23    <-- DIS
     195       2.24457660       2.24457660       9.211E-10      5.26    <-- DIS
     196       2.24457660       2.24457660       8.532E-10      5.29    <-- DIS
     197       2.24457660       2.24457660       7.903E-10      5.31    <-- DIS
     198       2.24457660       2.24457660       7.321E-10      5.34    <-- DIS
     199       2.24457660       2.24457660       6.781E-10      5.37    <-- DIS
     200       2.24457660       2.24457660       6.281E-10      5.40    <-- DIS
     201       2.24457660       2.24457660       5.819E-10      5.42    <-- DIS
     202       2.24457660       2.24457660       5.390E-10      5.45    <-- DIS
     203       2.24457660       2.24457660       4.993E-10      5.48    <-- DIS
     204       2.24457660       2.24457660       4.625E-10      5.50    <-- DIS
     205       2.24457660       2.24457659       4.285E-10      5.53    <-- DIS
     206       2.24457660       2.24457659       3.969E-10      5.56    <-- DIS
     207       2.24457660       2.24457659       3.677E-10      5.59    <-- DIS
     208       2.24457660       2.24457659       3.406E-10      5.61    <-- DIS
     209       2.24457660       2.24457659       3.155E-10      5.64    <-- DIS
     210       2.24457659       2.24457659       2.923E-10      5.67    <-- DIS
     211       2.24457659       2.24457659       2.708E-10      5.69    <-- DIS
     212       2.24457659       2.24457659       2.509E-10      5.72    <-- DIS
     213       2.24457659       2.24457659       2.324E-10      5.75    <-- DIS
     214       2.24457659       2.24457659       2.153E-10      5.77    <-- DIS
     215       2.24457659       2.24457659       1.995E-10      5.80    <-- DIS
     216       2.24457659       2.24457659       1.848E-10      5.83    <-- DIS
     217       2.24457659       2.24457659       1.712E-10      5.86    <-- DIS
     218       2.24457659       2.24457659       1.586E-10      5.88    <-- DIS
     219       2.24457659       2.24457659       1.469E-10      5.91    <-- DIS
     220       2.24457659       2.24457659       1.361E-10      5.94    <-- DIS
     221       2.24457659       2.24457659       1.261E-10      5.96    <-- DIS
     222       2.24457659       2.24457659       1.168E-10      5.99    <-- DIS
     223       2.24457659       2.24457659       1.082E-10      6.02    <-- DIS
     224       2.24457659       2.24457659       1.003E-10      6.05    <-- DIS
     225       2.24457659       2.24457659       9.291E-11      6.07    <-- DIS
     226       2.24457659       2.24457659       8.607E-11      6.10    <-- DIS
     227       2.24457659       2.24457659       7.974E-11      6.13    <-- DIS

             <<<      Delta < 1.000E-10  over  3 iterations     >>>
             <<< Disentanglement convergence criteria satisfied >>>

        Final Omega_I     2.24457659 (Ang^2)

 +----------------------------------------------------------------------------+

 Time to disentangle bands      6.350 (sec)

 Writing checkpoint file wannier90.chk... done

 
 *------------------------------- WANNIERISE ---------------------------------*
 +--------------------------------------------------------------------+<-- CONV
 | Iter  Delta Spread     RMS Gradient      Spread (Ang^2)      Time  |<-- CONV
 +--------------------------------------------------------------------+<-- CONV
 
 ------------------------------------------------------------------------------
 Initial State
  WF centre and spread    1  ( -1.913192, -1.913192, -1.602293 )     2.24457659
  Sum of centres and spreads ( -1.913192, -1.913192, -1.602293 )     2.24457659
 
      0     0.224E+01     0.0000000000        2.2445765935       6.23  <-- CONV
        O_D=      0.0000000 O_OD=      0.0000000 O_TOT=      2.2445766 <-- SPRD
 ------------------------------------------------------------------------------
 Cycle:      1
  WF centre and spread    1  ( -1.913192, -1.913192, -1.602293 )     2.24457659
  Sum of centres and spreads ( -1.913192, -1.913192, -1.602293 )     2.24457659
 
      1     0.000E+00     0.0000000036        2.2445765935       6.23  <-- CONV
        O_D=      0.0000000 O_OD=      0.0000000 O_TOT=      2.2445766 <-- SPRD
 Delta: O_D= -0.7497175E-19 O_OD=  0.0000000E+00 O_TOT=  0.0000000E+00 <-- DLTA
 ------------------------------------------------------------------------------
 [ Adding random noise to search direction. Time   1 /  10 ]

             <<<     Delta < 1.000E-10  over 10 iterations     >>>
             <<< Wannierisation convergence criteria satisfied >>>

 Final State
  WF centre and spread    1  ( -1.913192, -1.913192, -1.602293 )     2.24457659
  Sum of centres and spreads ( -1.913192, -1.913192, -1.602293 )     2.24457659
 
         Spreads (Ang^2)       Omega I      =     2.244576593
        ================       Omega D      =     0.000000000
                               Omega OD     =     0.000000000
    Final Spread (Ang^2)       Omega Total  =     2.244576593
 ------------------------------------------------------------------------------

 Wannier centres written to file wannier90_centres.xyz

 ------------------------------------------------------------------------------
          Projection of Bands in Outer Window on all Wannier Functions
         --------------------------------------------------------------
                    Kpt  Band      Eigval      |Projection|^2
                 -----------------------------------------------
                     1    17       6.016626      1.00000000
                     1    18       6.948638      0.00000000
                     1    19       9.334404      0.00000000
                     2    17       6.273905      0.99573964
                     2    18       7.111081      0.00288261
                     2    19       9.725855      0.00137775
                     3    16       5.974204      0.00000000
                     3    17       6.606117      0.96877804
                     3    18       7.536525      0.03122196
                     4    15       5.946032      0.00000000
                     4    16       6.352250      0.00000000
                     4    17       6.791486      0.97531922
                     4    18       7.979175      0.02468078
                     5    15       6.093836      0.00000000
                     5    16       6.499261      0.00000000
                     5    17       6.857022      1.00000000
                     5    18       8.150141      0.00000000
                     6    17       6.594875      1.00000000
                     6    18       7.259610      0.00000000
                     7    16       5.972301      0.00000000
                     7    17       7.025369      0.96218872
                     7    18       7.690842      0.03781128
                     8    15       5.852435      0.00148449
                     8    16       6.333738      0.00000000
                     8    17       7.249038      0.96716645
                     8    18       8.196497      0.03134907
                     9    15       6.004871      0.00000000
                     9    16       6.477042      0.00000000
                     9    17       7.322608      1.00000000
                     9    18       8.411853      0.00000000
                    10    15       5.820612      0.00000000
                    10    16       6.031798      0.00000000
                    10    17       7.757475      1.00000000
                    10    18       8.136772      0.00000000
                    11    14       5.778349      0.00017971
                    11    15       5.897523      0.00000000
                    11    16       6.302342      0.00000000
                    11    17       8.190197      0.97980355
                    11    18       8.783195      0.02001673
                    12    14       5.897425      0.00000000
                    12    15       5.904474      0.00000000
                    12    16       6.436638      0.00000000
                    12    17       8.323546      1.00000000
                    12    18       9.099045      0.00000000
                    13    14       5.856882      0.00000000
                    13    15       6.219491      0.00000000
                    13    16       6.308138      0.00000000
                    13    17       8.930178      1.00000000
                    13    18       9.534316      0.00000000
                    14    14       5.926064      0.00000000
                    14    15       6.255147      0.00000000
                    14    16       6.408554      0.00000000
                    14    17       9.176570      1.00000000
                    15    14       5.974760      0.00000000
                    15    15       6.399325      0.00000000
                    15    16       6.399325      0.00000000
                    15    17       9.486938      1.00000000
                    16    17       6.023983      1.00000000
                    16    18       7.141326      0.00000000
                    16    19       9.545406      0.00000000
                    17    17       6.282003      0.99648157
                    17    18       7.299443      0.00351843
                    18    16       5.934227      0.00198221
                    18    17       6.618638      0.97094022
                    18    18       7.734348      0.02707757
                    19    15       5.922356      0.00000000
                    19    16       6.312894      0.00325414
                    19    17       6.803989      0.97683160
                    19    18       8.206529      0.01991426
                    20    15       6.068027      0.00000000
                    20    16       6.462401      0.00000000
                    20    17       6.865098      1.00000000
                    20    18       8.401088      0.00000000
                    21    17       6.600309      1.00000000
                    21    18       7.446594      0.00000000
                    22    16       5.940965      0.00014043
                    22    17       7.036340      0.97385687
                    22    18       7.887492      0.02600269
                    23    15       5.856720      0.00138999
                    23    16       6.310091      0.00018419
                    23    17       7.262321      0.97579716
                    23    18       8.415531      0.02262866
                    24    15       6.004736      0.00000000
                    24    16       6.456247      0.00000000
                    24    17       7.332858      1.00000000
                    24    18       8.647913      0.00000000
                    25    15       5.809026      0.00000000
                    25    16       6.004735      0.00003112
                    25    17       7.763588      0.99996888
                    25    18       8.342253      0.00000000
                    26    14       5.814889      0.00018217
                    26    15       5.879212      0.00004854
                    26    16       6.290487      0.00002285
                    26    17       8.199528      0.98842101
                    26    18       8.988859      0.01132543
                    27    14       5.884617      0.00009415
                    27    15       5.931396      0.00000000
                    27    16       6.429470      0.00000000
                    27    17       8.330772      0.99990585
                    27    18       9.308939      0.00000000
                    28    14       5.901161      0.00000000
                    28    15       6.209430      0.00000000
                    28    16       6.298158      0.00007395
                    28    17       8.933336      0.99992605
                    28    18       9.729738      0.00000000
                    29    14       5.970236      0.00000000
                    29    15       6.244373      0.00005962
                    29    16       6.402502      0.00000000
                    29    17       9.179070      0.99994038
                    30    14       6.019481      0.00000000
                    30    15       6.392486      0.00000000
                    30    16       6.392486      0.00000000
                    30    17       9.488348      1.00000000
                    31    17       6.037620      1.00000000
                    31    18       7.664575      0.00000000
                    32    17       6.299265      0.99612639
                    32    18       7.834660      0.00387361
                    33    16       5.848370      0.00466314
                    33    17       6.650368      0.97512834
                    33    18       8.307820      0.02020852
                    34    15       5.872807      0.00000000
                    34    16       6.224882      0.00673590
                    34    17       6.837603      0.98037097
                    34    18       8.857227      0.01289313
                    35    15       6.013256      0.00000000
                    35    16       6.380579      0.00000000
                    35    17       6.892289      1.00000000
                    35    18       9.115140      0.00000000
                    36    17       6.613461      1.00000000
                    36    18       7.990280      0.00000000
                    37    16       5.866199      0.00050872
                    37    17       7.061733      0.98599709
                    37    18       8.461646      0.01349418
                    38    15       5.866434      0.00112884
                    38    16       6.244134      0.00068593
                    38    17       7.295071      0.98624839
                    38    18       9.049289      0.01193683
                    39    15       6.004627      0.00000000
                    39    16       6.396717      0.00000000
                    39    17       7.361903      1.00000000
                    39    18       9.332399      0.00000000
                    40    15       5.800907      0.00000000
                    40    16       5.927971      0.00010413
                    40    17       7.779715      0.99989587
                    40    18       8.930246      0.00000000
                    41    14       5.837846      0.00008112
                    41    15       5.906726      0.00021935
                    41    16       6.254431      0.00007855
                    41    17       8.219474      0.99574957
                    41    18       9.585174      0.00387140
                    42    14       5.839517      0.00021642
                    42    15       6.015401      0.00000000
                    42    16       6.404899      0.00000000
                    42    17       8.347920      0.99978358
                    43    14       6.017045      0.00000000
                    43    15       6.186947      0.00000000
                    43    16       6.270251      0.00024682
                    43    17       8.941518      0.99975318
                    44    14       6.086807      0.00000000
                    44    15       6.217989      0.00017594
                    44    16       6.386950      0.00000000
                    44    17       9.184435      0.99982406
                    45    14       6.138992      0.00000000
                    45    15       6.375947      0.00000000
                    45    16       6.375947      0.00000000
                    45    17       9.492306      1.00000000
                    45    18       9.853426      0.00000000
                    46    17       6.049105      1.00000000
                    46    18       8.379860      0.00000000
                    47    17       6.319273      0.99691690
                    47    18       8.571624      0.00308310
                    48    16       5.777124      0.00779680
                    48    17       6.700693      0.97863839
                    48    18       9.098721      0.01356481
                    49    15       5.829391      0.00000000
                    49    16       6.129786      0.00899263
                    49    17       6.898373      0.98410834
                    49    18       9.769099      0.00689902
                    50    15       5.963210      0.00000000
                    50    16       6.291081      0.00000000
                    50    17       6.950255      1.00000000
                    51    17       6.628511      1.00000000
                    51    18       8.739123      0.00000000
                    52    16       5.810046      0.00117806
                    52    17       7.095706      0.99081470
                    52    18       9.228896      0.00800724
                    53    15       5.878702      0.00072057
                    53    16       6.158476      0.00155106
                    53    17       7.342631      0.98967826
                    53    18       9.835890      0.00805011
                    54    15       6.006065      0.00000000
                    54    16       6.315117      0.00000000
                    54    17       7.408214      1.00000000
                    55    15       5.821816      0.00010722
                    55    16       5.877741      0.00000000
                    55    17       7.800600      0.99989278
                    55    18       9.531520      0.00000000
                    56    14       5.816624      0.00007282
                    56    15       6.009236      0.00023006
                    56    16       6.201273      0.00009096
                    56    17       8.240329      0.99239893
                    56    18       9.526760      0.00720724
                    57    14       5.817043      0.00021488
                    57    15       6.110705      0.00000000
                    57    16       6.359299      0.00000000
                    57    17       8.361165      0.98541928
                    57    18       9.438630      0.01436584
                    58    14       6.139669      0.00000000
                    58    15       6.193338      0.00000000
                    58    16       6.228834      0.00027767
                    58    17       8.951568      0.99972233
                    58    18       9.127643      0.00000000
                    59    14       6.192149      0.00021426
                    59    15       6.233764      0.00000000
                    59    16       6.368214      0.00000000
                    59    17       8.963739      0.05287229
                    59    18       9.205344      0.94691345
                    60    14       6.295370      0.00000000
                    60    15       6.359604      0.00000000
                    60    16       6.359604      0.00000000
                    60    17       8.809054      0.00000000
                    60    18       9.497826      1.00000000
                    61    17       6.057073      1.00000000
                    61    18       9.128049      0.00000000
                    62    17       6.344491      0.99901896
                    62    18       9.285733      0.00098104
                    63    16       5.825353      0.02192798
                    63    17       6.781584      0.97323286
                    63    18       9.715430      0.00483916
                    64    15       5.803038      0.00000000
                    64    16       6.053188      0.01276677
                    64    17       7.009844      0.98723323
                    65    15       5.930495      0.00000000
                    65    16       6.213049      0.00000000
                    65    17       7.065306      1.00000000
                    66    16       5.826072      0.00000000
                    66    17       6.641372      1.00000000
                    66    18       9.390645      0.00000000
                    67    16       5.910247      0.00450701
                    67    17       7.138572      0.99089577
                    67    18       9.601193      0.00459722
                    68    15       5.895416      0.00024798
                    68    16       6.090980      0.00320877
                    68    17       7.412353      0.98604944
                    68    18       9.605325      0.01049380
                    69    15       6.009945      0.00000000
                    69    16       6.236883      0.00000000
                    69    17       7.479150      0.98882576
                    69    18       9.531843      0.01117424
                    70    15       5.774532      0.00000000
                    70    16       6.025284      0.00000000
                    70    17       7.820376      1.00000000
                    70    18       9.202822      0.00000000
                    71    14       5.878595      0.00000385
                    71    15       6.068737      0.00023006
                    71    16       6.177320      0.00005527
                    71    17       8.249029      0.94436935
                    71    18       8.807846      0.05534146
                    72    14       5.904356      0.00002571
                    72    15       6.187571      0.00000000
                    72    16       6.302055      0.00000000
                    72    17       8.307041      0.72981765
                    72    18       8.702915      0.27015664
                    73    14       6.167759      0.00000000
                    73    15       6.180935      0.00017257
                    73    16       6.307327      0.00000000
                    73    17       8.222794      0.00000000
                    73    18       8.960585      0.99982743
                    74    14       6.190162      0.00013716
                    74    15       6.329692      0.00000000
                    74    16       6.384816      0.00000000
                    74    17       8.004364      0.00271607
                    74    18       9.202294      0.99714677
                    75    14       6.352743      0.00000000
                    75    15       6.352743      0.00000000
                    75    16       6.443833      0.00000000
                    75    17       7.777828      0.00000000
                    75    18       9.503438      1.00000000
                    76    16       6.001030      0.00000000
                    76    17       6.061783      1.00000000
                    76    18       9.773901      0.00000000
                    77    16       6.009241      0.08186959
                    77    17       6.381383      0.91810036
                    77    18       9.833128      0.00003006
                    78    16       6.008392      0.09345115
                    78    17       6.890575      0.90654885
                    79    14       5.790645      0.00000000
                    79    15       5.913418      0.01916701
                    79    16       6.028125      0.05421910
                    79    17       7.179331      0.92661389
                    80    14       5.913570      0.00000000
                    80    15       5.962184      0.05972926
                    80    16       6.159001      0.00000000
                    80    17       7.252158      0.94027074
                    81    16       6.097074      0.00000000
                    81    17       6.649781      1.00000000
                    81    18       9.760583      0.00000000
                    82    16       6.130591      0.02147355
                    82    17       7.187934      0.97704986
                    82    18       9.489996      0.00147659
                    83    14       5.868812      0.00264217
                    83    15       5.941913      0.00046757
                    83    16       6.128564      0.02115771
                    83    17       7.514286      0.96653217
                    83    18       9.131018      0.00920038
                    84    14       6.014424      0.00000000
                    84    15       6.051511      0.02065934
                    84    16       6.181797      0.00000000
                    84    17       7.593628      0.96203041
                    84    18       8.959222      0.01731025
                    85    15       5.829591      0.00000000
                    85    16       6.228248      0.00000000
                    85    17       7.834266      1.00000000
                    85    18       8.729112      0.00000000
                    86    14       5.976729      0.00004372
                    86    15       6.096367      0.00053129
                    86    16       6.258145      0.00089661
                    86    17       8.082719      0.15396863
                    86    18       8.346375      0.84455974
                    87    14       6.147695      0.00132388
                    87    15       6.229667      0.00000000
                    87    16       6.260757      0.00000000
                    87    17       7.834088      0.04940241
                    87    18       8.476393      0.94927371
                    88    14       6.140289      0.00003803
                    88    15       6.250051      0.00000000
                    88    16       6.390372      0.00000000
                    88    17       7.451490      0.00000000
                    88    18       8.966972      0.99996197
                    89    14       6.251706      0.00000080
                    89    15       6.320040      0.00000000
                    89    16       6.463912      0.00000000
                    89    17       7.173726      0.00065862
                    89    18       9.201983      0.99934058
                    90    14       6.355909      0.00000000
                    90    15       6.355909      0.00000000
                    90    16       6.548237      0.00000000
                    90    17       6.894650      0.00000000
                    90    18       9.507716      1.00000000
                    91    16       6.063349      1.00000000
                    91    17       6.094650      0.00000000
                    92    16       6.087759      0.17584556
                    92    17       6.406773      0.82415444
                    93    16       6.082971      0.14666566
                    93    17       6.950463      0.85333434
                    94    14       5.787187      0.00000000
                    94    15       5.948350      0.00000000
                    94    16       6.071563      0.12839344
                    94    17       7.282362      0.87160656
                    94    18       9.860473      0.00000000
                    95    14       5.908468      0.00000000
                    95    15       6.062764      0.11922118
                    95    16       6.139442      0.00000000
                    95    17       7.373033      0.88077882
                    95    18       9.761789      0.00000000
                    96    16       6.201462      0.00000000
                    96    17       6.652692      1.00000000
                    96    18       9.867302      0.00000000
                    97    16       6.231300      0.03759396
                    97    17       7.215105      0.96240604
                    97    18       9.394148      0.00000000
                    98    14       5.882591      0.00194841
                    98    15       5.952204      0.00000000
                    98    16       6.216606      0.04677966
                    98    17       7.585636      0.95127193
                    98    18       8.899917      0.00000000
                    99    14       6.016420      0.00000000
                    99    15       6.161975      0.00000000
                    99    16       6.192928      0.04879037
                    99    17       7.688477      0.95120963
                    99    18       8.672557      0.00000000
                   100    15       5.846838      0.00000000
                   100    16       6.343424      0.00000000
                   100    17       7.839222      1.00000000
                   100    18       8.518425      0.00000000
                   101    14       5.985006      0.00000000
                   101    15       6.126136      0.00053786
                   101    16       6.362546      0.00323882
                   101    17       7.824026      0.00000000
                   101    18       8.318742      0.99622332
                   102    14       6.226595      0.00000000
                   102    15       6.262108      0.00000000
                   102    16       6.336569      0.00524838
                   102    17       7.506565      0.00000000
                   102    18       8.462215      0.99475162
                   103    14       6.124039      0.00000000
                   103    15       6.344635      0.00000000
                   103    16       6.440089      0.00000000
                   103    17       7.065348      0.00000000
                   103    18       8.969270      1.00000000
                   104    14       6.313287      0.00000000
                   104    15       6.402724      0.00018564
                   104    16       6.492928      0.00000000
                   104    17       6.698231      0.00000000
                   104    18       9.200878      0.99981436
                   105    14       6.359317      0.00000000
                   105    15       6.359317      0.00000000
                   105    16       6.422228      0.00000000
                   105    17       6.585671      0.00000000
                   105    18       9.509198      1.00000000
                   106    17       6.273905      0.99573964
                   106    18       7.111081      0.00288261
                   106    19       9.725855      0.00137775
                   107    17       6.273905      0.99573964
                   107    18       7.111081      0.00288261
                   107    19       9.725855      0.00137775
                   108    17       6.273905      0.99573964
                   108    18       7.111081      0.00288261
                   108    19       9.725855      0.00137775
                   109    16       5.974204      0.00000000
                   109    17       6.606117      0.96877804
                   109    18       7.536525      0.03122196
                   110    16       5.974204      0.00000000
                   110    17       6.606117      0.96877804
                   110    18       7.536525      0.03122196
                   111    16       5.974204      0.00000000
                   111    17       6.606117      0.96877804
                   111    18       7.536525      0.03122196
                   112    15       5.946032      0.00000000
                   112    16       6.352250      0.00000000
                   112    17       6.791486      0.97531922
                   112    18       7.979175      0.02468078
                   113    15       5.946032      0.00000000
                   113    16       6.352250      0.00000000
                   113    17       6.791486      0.97531922
                   113    18       7.979175      0.02468078
                   114    15       5.946032      0.00000000
                   114    16       6.352250      0.00000000
                   114    17       6.791486      0.97531922
                   114    18       7.979175      0.02468078
                   115    15       6.093836      0.00000000
                   115    16       6.499261      0.00000000
                   115    17       6.857022      1.00000000
                   115    18       8.150141      0.00000000
                   116    17       6.594875      1.00000000
                   116    18       7.259610      0.00000000
                   117    17       6.594875      1.00000000
                   117    18       7.259610      0.00000000
                   118    17       6.594875      1.00000000
                   118    18       7.259610      0.00000000
                   119    16       5.972301      0.00000000
                   119    17       7.025369      0.96218872
                   119    18       7.690842      0.03781128
                   120    16       5.972301      0.00000000
                   120    17       7.025369      0.96218872
                   120    18       7.690842      0.03781128
                   121    16       5.972301      0.00000000
                   121    17       7.025369      0.96218872
                   121    18       7.690842      0.03781128
                   122    16       5.972301      0.00000000
                   122    17       7.025369      0.96218872
                   122    18       7.690842      0.03781128
                   123    16       5.972301      0.00000000
                   123    17       7.025369      0.96218872
                   123    18       7.690842      0.03781128
                   124    16       5.972301      0.00000000
                   124    17       7.025369      0.96218872
                   124    18       7.690842      0.03781128
                   125    16       5.972301      0.00000000
                   125    17       7.025369      0.96218872
                   125    18       7.690842      0.03781128
                   126    15       5.852435      0.00148449
                   126    16       6.333738      0.00000000
                   126    17       7.249038      0.96716645
                   126    18       8.196497      0.03134907
                   127    15       5.852435      0.00148449
                   127    16       6.333738      0.00000000
                   127    17       7.249038      0.96716645
                   127    18       8.196497      0.03134907
                   128    15       5.852435      0.00148449
                   128    16       6.333738      0.00000000
                   128    17       7.249038      0.96716645
                   128    18       8.196497      0.03134907
                   129    15       5.852435      0.00148448
                   129    16       6.333738      0.00000000
                   129    17       7.249038      0.96716645
                   129    18       8.196497      0.03134907
                   130    15       5.852435      0.00148448
                   130    16       6.333738      0.00000000
                   130    17       7.249038      0.96716645
                   130    18       8.196497      0.03134907
                   131    15       5.852435      0.00148448
                   131    16       6.333738      0.00000000
                   131    17       7.249038      0.96716645
                   131    18       8.196497      0.03134907
                   132    15       5.852435      0.00148448
                   132    16       6.333738      0.00000000
                   132    17       7.249038      0.96716645
                   132    18       8.196497      0.03134907
                   133    15       6.004871      0.00000000
                   133    16       6.477042      0.00000000
                   133    17       7.322608      1.00000000
                   133    18       8.411853      0.00000000
                   134    15       6.004871      0.00000000
                   134    16       6.477042      0.00000000
                   134    17       7.322608      1.00000000
                   134    18       8.411853      0.00000000
                   135    15       6.004871      0.00000000
                   135    16       6.477042      0.00000000
                   135    17       7.322608      1.00000000
                   135    18       8.411853      0.00000000
                   136    15       5.820612      0.00000000
                   136    16       6.031798      0.00000000
                   136    17       7.757475      1.00000000
                   136    18       8.136772      0.00000000
                   137    15       5.820612      0.00000000
                   137    16       6.031798      0.00000000
                   137    17       7.757475      1.00000000
                   137    18       8.136772      0.00000000
                   138    15       5.820612      0.00000000
                   138    16       6.031798      0.00000000
                   138    17       7.757475      1.00000000
                   138    18       8.136772      0.00000000
                   139    14       5.778349      0.00017971
                   139    15       5.897523      0.00000000
                   139    16       6.302342      0.00000000
                   139    17       8.190197      0.97980355
                   139    18       8.783195      0.02001673
                   140    14       5.778349      0.00017971
                   140    15       5.897523      0.00000000
                   140    16       6.302342      0.00000000
                   140    17       8.190197      0.97980355
                   140    18       8.783195      0.02001674
                   141    14       5.778349      0.00017971
                   141    15       5.897523      0.00000000
                   141    16       6.302342      0.00000000
                   141    17       8.190197      0.97980355
                   141    18       8.783195      0.02001674
                   142    14       5.778349      0.00017971
                   142    15       5.897523      0.00000000
                   142    16       6.302342      0.00000000
                   142    17       8.190197      0.97980355
                   142    18       8.783195      0.02001674
                   143    14       5.778349      0.00017971
                   143    15       5.897523      0.00000000
                   143    16       6.302342      0.00000000
                   143    17       8.190197      0.97980355
                   143    18       8.783195      0.02001674
                   144    14       5.778349      0.00017971
                   144    15       5.897523      0.00000000
                   144    16       6.302342      0.00000000
                   144    17       8.190197      0.97980355
                   144    18       8.783195      0.02001674
                   145    14       5.778349      0.00017971
                   145    15       5.897523      0.00000000
                   145    16       6.302342      0.00000000
                   145    17       8.190197      0.97980355
                   145    18       8.783195      0.02001674
                   146    14       5.897425      0.00000000
                   146    15       5.904474      0.00000000
                   146    16       6.436638      0.00000000
                   146    17       8.323546      1.00000000
                   146    18       9.099045      0.00000000
                   147    14       5.897425      0.00000000
                   147    15       5.904474      0.00000000
                   147    16       6.436638      0.00000000
                   147    17       8.323546      1.00000000
                   147    18       9.099045      0.00000000
                   148    14       5.897425      0.00000000
                   148    15       5.904474      0.00000000
                   148    16       6.436638      0.00000000
                   148    17       8.323546      1.00000000
                   148    18       9.099045      0.00000000
                   149    14       5.856882      0.00000000
                   149    15       6.219491      0.00000000
                   149    16       6.308138      0.00000000
                   149    17       8.930178      1.00000000
                   149    18       9.534316      0.00000000
                   150    14       5.856882      0.00000000
                   150    15       6.219491      0.00000000
                   150    16       6.308138      0.00000000
                   150    17       8.930178      1.00000000
                   150    18       9.534316      0.00000000
                   151    14       5.856882      0.00000000
                   151    15       6.219491      0.00000000
                   151    16       6.308138      0.00000000
                   151    17       8.930178      1.00000000
                   151    18       9.534316      0.00000000
                   152    14       5.926064      0.00000000
                   152    15       6.255147      0.00000000
                   152    16       6.408554      0.00000000
                   152    17       9.176570      1.00000000
                   153    14       5.926064      0.00000000
                   153    15       6.255147      0.00000000
                   153    16       6.408554      0.00000000
                   153    17       9.176570      1.00000000
                   154    14       5.926064      0.00000000
                   154    15       6.255147      0.00000000
                   154    16       6.408554      0.00000000
                   154    17       9.176570      1.00000000
                   155    17       6.023983      1.00000000
                   155    18       7.141326      0.00000000
                   155    19       9.545406      0.00000000
                   156    17       6.282003      0.99648157
                   156    18       7.299443      0.00351843
                   157    17       6.282003      0.99648157
                   157    18       7.299443      0.00351843
                   158    17       6.282003      0.99648157
                   158    18       7.299443      0.00351843
                   159    17       6.282003      0.99648157
                   159    18       7.299443      0.00351843
                   160    17       6.282003      0.99648157
                   160    18       7.299443      0.00351843
                   161    17       6.282003      0.99648157
                   161    18       7.299443      0.00351843
                   162    17       6.282003      0.99648157
                   162    18       7.299443      0.00351843
                   163    16       5.934227      0.00198221
                   163    17       6.618638      0.97094022
                   163    18       7.734348      0.02707757
                   164    16       5.934227      0.00198221
                   164    17       6.618638      0.97094022
                   164    18       7.734348      0.02707757
                   165    16       5.934227      0.00198221
                   165    17       6.618638      0.97094022
                   165    18       7.734348      0.02707757
                   166    16       5.934227      0.00198221
                   166    17       6.618638      0.97094022
                   166    18       7.734348      0.02707757
                   167    16       5.934227      0.00198221
                   167    17       6.618638      0.97094022
                   167    18       7.734348      0.02707757
                   168    16       5.934227      0.00198221
                   168    17       6.618638      0.97094022
                   168    18       7.734348      0.02707757
                   169    16       5.934227      0.00198221
                   169    17       6.618638      0.97094022
                   169    18       7.734348      0.02707757
                   170    15       5.922356      0.00000000
                   170    16       6.312894      0.00325414
                   170    17       6.803989      0.97683160
                   170    18       8.206529      0.01991426
                   171    15       5.922356      0.00000000
                   171    16       6.312894      0.00325414
                   171    17       6.803989      0.97683160
                   171    18       8.206529      0.01991426
                   172    15       5.922356      0.00000000
                   172    16       6.312894      0.00325414
                   172    17       6.803989      0.97683160
                   172    18       8.206529      0.01991426
                   173    15       5.922356      0.00000000
                   173    16       6.312894      0.00325414
                   173    17       6.803989      0.97683160
                   173    18       8.206529      0.01991426
                   174    15       5.922356      0.00000000
                   174    16       6.312894      0.00325414
                   174    17       6.803989      0.97683160
                   174    18       8.206529      0.01991426
                   175    15       5.922356      0.00000000
                   175    16       6.312894      0.00325414
                   175    17       6.803989      0.97683160
                   175    18       8.206529      0.01991426
                   176    15       5.922356      0.00000000
                   176    16       6.312894      0.00325414
                   176    17       6.803989      0.97683160
                   176    18       8.206529      0.01991426
                   177    15       6.068027      0.00000000
                   177    16       6.462401      0.00000000
                   177    17       6.865098      1.00000000
                   177    18       8.401088      0.00000000
[...]
                   699    18       8.476393      0.94927371
                   700    14       6.147695      0.00132388
                   700    15       6.229667      0.00000000
                   700    16       6.260757      0.00000000
                   700    17       7.834088      0.04940241
                   700    18       8.476393      0.94927371
                   701    14       6.147695      0.00132388
                   701    15       6.229667      0.00000000
                   701    16       6.260757      0.00000000
                   701    17       7.834088      0.04940241
                   701    18       8.476393      0.94927371
                   702    14       6.147695      0.00132388
                   702    15       6.229667      0.00000000
                   702    16       6.260757      0.00000000
                   702    17       7.834088      0.04940241
                   702    18       8.476393      0.94927371
                   703    14       6.147695      0.00132388
                   703    15       6.229667      0.00000000
                   703    16       6.260757      0.00000000
                   703    17       7.834088      0.04940241
                   703    18       8.476393      0.94927371
                   704    14       6.147695      0.00132388
                   704    15       6.229667      0.00000000
                   704    16       6.260757      0.00000000
                   704    17       7.834088      0.04940241
                   704    18       8.476393      0.94927371
                   705    14       6.140289      0.00003803
                   705    15       6.250051      0.00000000
                   705    16       6.390372      0.00000000
                   705    17       7.451490      0.00000000
                   705    18       8.966972      0.99996197
                   706    14       6.140289      0.00003803
                   706    15       6.250051      0.00000000
                   706    16       6.390372      0.00000000
                   706    17       7.451490      0.00000000
                   706    18       8.966972      0.99996197
                   707    14       6.140289      0.00003803
                   707    15       6.250051      0.00000000
                   707    16       6.390372      0.00000000
                   707    17       7.451490      0.00000000
                   707    18       8.966972      0.99996197
                   708    14       6.140289      0.00003803
                   708    15       6.250051      0.00000000
                   708    16       6.390372      0.00000000
                   708    17       7.451490      0.00000000
                   708    18       8.966972      0.99996197
                   709    14       6.140289      0.00003803
                   709    15       6.250051      0.00000000
                   709    16       6.390372      0.00000000
                   709    17       7.451490      0.00000000
                   709    18       8.966972      0.99996197
                   710    14       6.140289      0.00003803
                   710    15       6.250051      0.00000000
                   710    16       6.390372      0.00000000
                   710    17       7.451490      0.00000000
                   710    18       8.966972      0.99996197
                   711    14       6.140289      0.00003803
                   711    15       6.250051      0.00000000
                   711    16       6.390372      0.00000000
                   711    17       7.451490      0.00000000
                   711    18       8.966972      0.99996197
                   712    14       6.251706      0.00000080
                   712    15       6.320040      0.00000000
                   712    16       6.463912      0.00000000
                   712    17       7.173726      0.00065862
                   712    18       9.201983      0.99934058
                   713    14       6.251706      0.00000080
                   713    15       6.320040      0.00000000
                   713    16       6.463912      0.00000000
                   713    17       7.173726      0.00065862
                   713    18       9.201983      0.99934058
                   714    14       6.251706      0.00000080
                   714    15       6.320040      0.00000000
                   714    16       6.463912      0.00000000
                   714    17       7.173726      0.00065862
                   714    18       9.201983      0.99934058
                   715    14       6.251706      0.00000080
                   715    15       6.320040      0.00000000
                   715    16       6.463912      0.00000000
                   715    17       7.173726      0.00065862
                   715    18       9.201983      0.99934058
                   716    14       6.251706      0.00000080
                   716    15       6.320040      0.00000000
                   716    16       6.463912      0.00000000
                   716    17       7.173726      0.00065862
                   716    18       9.201983      0.99934058
                   717    14       6.251706      0.00000080
                   717    15       6.320040      0.00000000
                   717    16       6.463912      0.00000000
                   717    17       7.173726      0.00065862
                   717    18       9.201983      0.99934058
                   718    14       6.251706      0.00000080
                   718    15       6.320040      0.00000000
                   718    16       6.463912      0.00000000
                   718    17       7.173726      0.00065862
                   718    18       9.201983      0.99934058
                   719    14       6.355909      0.00000000
                   719    15       6.355909      0.00000000
                   719    16       6.548237      0.00000000
                   719    17       6.894650      0.00000000
                   719    18       9.507716      1.00000000
                   720    16       6.087759      0.17584556
                   720    17       6.406773      0.82415444
                   721    16       6.087759      0.17584556
                   721    17       6.406773      0.82415444
                   722    16       6.087759      0.17584556
                   722    17       6.406773      0.82415444
                   723    16       6.082971      0.14666566
                   723    17       6.950463      0.85333434
                   724    16       6.082971      0.14666566
                   724    17       6.950463      0.85333434
                   725    16       6.082971      0.14666566
                   725    17       6.950463      0.85333434
                   726    14       5.787187      0.00000000
                   726    15       5.948350      0.00000000
                   726    16       6.071563      0.12839344
                   726    17       7.282362      0.87160656
                   726    18       9.860473      0.00000000
                   727    14       5.787187      0.00000000
                   727    15       5.948350      0.00000000
                   727    16       6.071563      0.12839344
                   727    17       7.282362      0.87160656
                   727    18       9.860473      0.00000000
                   728    14       5.787187      0.00000000
                   728    15       5.948350      0.00000000
                   728    16       6.071563      0.12839344
                   728    17       7.282362      0.87160656
                   728    18       9.860473      0.00000000
                   729    14       5.908468      0.00000000
                   729    15       6.062764      0.11922118
                   729    16       6.139442      0.00000000
                   729    17       7.373033      0.88077882
                   729    18       9.761789      0.00000000
                   730    16       6.201462      0.00000000
                   730    17       6.652692      1.00000000
                   730    18       9.867302      0.00000000
                   731    16       6.201462      0.00000000
                   731    17       6.652692      1.00000000
                   731    18       9.867302      0.00000000
                   732    16       6.201462      0.00000000
                   732    17       6.652692      1.00000000
                   732    18       9.867302      0.00000000
                   733    16       6.231300      0.03759396
                   733    17       7.215105      0.96240604
                   733    18       9.394148      0.00000000
                   734    16       6.231300      0.03759396
                   734    17       7.215105      0.96240604
                   734    18       9.394148      0.00000000
                   735    16       6.231300      0.03759396
                   735    17       7.215105      0.96240604
                   735    18       9.394148      0.00000000
                   736    16       6.231300      0.03759396
                   736    17       7.215105      0.96240604
                   736    18       9.394148      0.00000000
                   737    16       6.231300      0.03759396
                   737    17       7.215105      0.96240604
                   737    18       9.394148      0.00000000
                   738    16       6.231300      0.03759396
                   738    17       7.215105      0.96240604
                   738    18       9.394148      0.00000000
                   739    16       6.231300      0.03759396
                   739    17       7.215105      0.96240604
                   739    18       9.394148      0.00000000
                   740    14       5.882591      0.00194841
                   740    15       5.952204      0.00000000
                   740    16       6.216606      0.04677966
                   740    17       7.585636      0.95127193
                   740    18       8.899917      0.00000000
                   741    14       5.882591      0.00194841
                   741    15       5.952204      0.00000000
                   741    16       6.216606      0.04677966
                   741    17       7.585636      0.95127193
                   741    18       8.899917      0.00000000
                   742    14       5.882591      0.00194841
                   742    15       5.952204      0.00000000
                   742    16       6.216606      0.04677966
                   742    17       7.585636      0.95127193
                   742    18       8.899917      0.00000000
                   743    14       5.882591      0.00194841
                   743    15       5.952204      0.00000000
                   743    16       6.216606      0.04677966
                   743    17       7.585636      0.95127193
                   743    18       8.899917      0.00000000
                   744    14       5.882591      0.00194841
                   744    15       5.952204      0.00000000
                   744    16       6.216606      0.04677966
                   744    17       7.585636      0.95127193
                   744    18       8.899917      0.00000000
                   745    14       5.882591      0.00194841
                   745    15       5.952204      0.00000000
                   745    16       6.216606      0.04677966
                   745    17       7.585636      0.95127193
                   745    18       8.899917      0.00000000
                   746    14       5.882591      0.00194841
                   746    15       5.952204      0.00000000
                   746    16       6.216606      0.04677966
                   746    17       7.585636      0.95127193
                   746    18       8.899917      0.00000000
                   747    14       6.016420      0.00000000
                   747    15       6.161975      0.00000000
                   747    16       6.192928      0.04879037
                   747    17       7.688477      0.95120963
                   747    18       8.672557      0.00000000
                   748    14       6.016420      0.00000000
                   748    15       6.161975      0.00000000
                   748    16       6.192928      0.04879037
                   748    17       7.688477      0.95120963
                   748    18       8.672557      0.00000000
                   749    14       6.016420      0.00000000
                   749    15       6.161975      0.00000000
                   749    16       6.192928      0.04879037
                   749    17       7.688477      0.95120963
                   749    18       8.672557      0.00000000
                   750    15       5.846838      0.00000000
                   750    16       6.343424      0.00000000
                   750    17       7.839222      1.00000000
                   750    18       8.518425      0.00000000
                   751    15       5.846838      0.00000000
                   751    16       6.343424      0.00000000
                   751    17       7.839222      1.00000000
                   751    18       8.518425      0.00000000
                   752    15       5.846838      0.00000000
                   752    16       6.343424      0.00000000
                   752    17       7.839222      1.00000000
                   752    18       8.518425      0.00000000
                   753    14       5.985006      0.00000000
                   753    15       6.126136      0.00053786
                   753    16       6.362546      0.00323882
                   753    17       7.824026      0.00000000
                   753    18       8.318742      0.99622332
                   754    14       5.985006      0.00000000
                   754    15       6.126136      0.00053786
                   754    16       6.362546      0.00323882
                   754    17       7.824026      0.00000000
                   754    18       8.318742      0.99622332
                   755    14       5.985006      0.00000000
                   755    15       6.126136      0.00053786
                   755    16       6.362546      0.00323882
                   755    17       7.824026      0.00000000
                   755    18       8.318742      0.99622332
                   756    14       5.985006      0.00000000
                   756    15       6.126136      0.00053786
                   756    16       6.362546      0.00323882
                   756    17       7.824026      0.00000000
                   756    18       8.318742      0.99622332
                   757    14       5.985006      0.00000000
                   757    15       6.126136      0.00053786
                   757    16       6.362546      0.00323882
                   757    17       7.824026      0.00000000
                   757    18       8.318742      0.99622332
                   758    14       5.985006      0.00000000
                   758    15       6.126136      0.00053786
                   758    16       6.362546      0.00323882
                   758    17       7.824026      0.00000000
                   758    18       8.318742      0.99622332
                   759    14       5.985006      0.00000000
                   759    15       6.126136      0.00053786
                   759    16       6.362546      0.00323882
                   759    17       7.824026      0.00000000
                   759    18       8.318742      0.99622332
                   760    14       6.226595      0.00000000
                   760    15       6.262108      0.00000000
                   760    16       6.336569      0.00524838
                   760    17       7.506565      0.00000000
                   760    18       8.462215      0.99475162
                   761    14       6.226595      0.00000000
                   761    15       6.262108      0.00000000
                   761    16       6.336569      0.00524838
                   761    17       7.506565      0.00000000
                   761    18       8.462215      0.99475162
                   762    14       6.226595      0.00000000
                   762    15       6.262108      0.00000000
                   762    16       6.336569      0.00524838
                   762    17       7.506565      0.00000000
                   762    18       8.462215      0.99475162
                   763    14       6.124039      0.00000000
                   763    15       6.344635      0.00000000
                   763    16       6.440089      0.00000000
                   763    17       7.065348      0.00000000
                   763    18       8.969270      1.00000000
                   764    14       6.124039      0.00000000
                   764    15       6.344635      0.00000000
                   764    16       6.440089      0.00000000
                   764    17       7.065348      0.00000000
                   764    18       8.969270      1.00000000
                   765    14       6.124039      0.00000000
                   765    15       6.344635      0.00000000
                   765    16       6.440089      0.00000000
                   765    17       7.065348      0.00000000
                   765    18       8.969270      1.00000000
                   766    14       6.313287      0.00000000
                   766    15       6.402724      0.00018564
                   766    16       6.492928      0.00000000
                   766    17       6.698231      0.00000000
                   766    18       9.200878      0.99981436
                   767    14       6.313287      0.00000000
                   767    15       6.402724      0.00018564
                   767    16       6.492928      0.00000000
                   767    17       6.698231      0.00000000
                   767    18       9.200878      0.99981436
                   768    14       6.313287      0.00000000
                   768    15       6.402724      0.00018564
                   768    16       6.492928      0.00000000
                   768    17       6.698231      0.00000000
                   768    18       9.200878      0.99981436
 ------------------------------------------------------------------------------

 Time for wannierise            0.053 (sec)

 Writing checkpoint file wannier90.chk... done

 *---------------------------------------------------------------------------*
 |                               PLOTTING                                    |
 *---------------------------------------------------------------------------*
 
 
 Calculating interpolated band-structure
 
 Time to calculate interpolated band structure       0.048 (sec)
 
 
 Calculating Fermi surface
 
 Time to calculate interpolated Fermi surface      10.158 (sec)
 
 Time for plotting             10.375 (sec)
 Total Execution Time          51.747 (sec)

 *===========================================================================*
 |                             TIMING INFORMATION                            |
 *===========================================================================*
 |    Tag                                                Ncalls      Time (s)|
 |---------------------------------------------------------------------------|
 |kmesh: get                                        :         1         0.383|
 |overlap: allocate                                 :         1         0.000|
 |overlap: read                                     :         1        34.480|
 |dis: main                                         :         1         6.350|
 |wann: main                                        :         1         0.053|
 |plot: main                                        :         1        10.375|
 *---------------------------------------------------------------------------*
 
 All done: wannier90 exiting
